version 2
run General-0-20140625-20:54:27-4832
attr configname General
attr datetime 20140625-20:54:27
attr experiment General
attr inifile maxWeightNet.ini
attr iterationvars ""
attr iterationvars2 $repetition=0
attr measurement ""
attr network MaxWeightNet
attr processid 4832
attr repetition 0
attr replication #0
attr resultdir results
attr runnumber 0
attr seedset 0

vector 0  MaxWeightNet.S1  cwnd:vector  ETV
attr interpolationmode  sample-hold
attr title  "window length, vector"
vector 1  MaxWeightNet.S1  seqnum:vector  ETV
attr interpolationmode  sample-hold
attr title  "ack receive, vector"
vector 2  MaxWeightNet.S2  cwnd:vector  ETV
attr interpolationmode  sample-hold
attr title  "window length, vector"
vector 3  MaxWeightNet.S2  seqnum:vector  ETV
attr interpolationmode  sample-hold
attr title  "ack receive, vector"
vector 4  MaxWeightNet.S3  cwnd:vector  ETV
attr interpolationmode  sample-hold
attr title  "window length, vector"
vector 5  MaxWeightNet.S3  seqnum:vector  ETV
attr interpolationmode  sample-hold
attr title  "ack receive, vector"
vector 6  MaxWeightNet.S4  cwnd:vector  ETV
attr interpolationmode  sample-hold
attr title  "window length, vector"
vector 7  MaxWeightNet.S4  seqnum:vector  ETV
attr interpolationmode  sample-hold
attr title  "ack receive, vector"
vector 8  MaxWeightNet.D1  arrive:vector  ETV
attr interpolationmode  sample-hold
attr title  "message arrived, vector"
vector 9  MaxWeightNet.D2  arrive:vector  ETV
attr interpolationmode  sample-hold
attr title  "message arrived, vector"
vector 10  MaxWeightNet.D3  arrive:vector  ETV
attr interpolationmode  sample-hold
attr title  "message arrived, vector"
vector 11  MaxWeightNet.D4  arrive:vector  ETV
attr interpolationmode  sample-hold
attr title  "message arrived, vector"
vector 12  MaxWeightNet.MW1.Q1  qlen:vector  ETV
attr interpolationmode  sample-hold
attr title  "queue length, vector"
vector 14  MaxWeightNet.MW1.Q2  qlen:vector  ETV
attr interpolationmode  sample-hold
attr title  "queue length, vector"
vector 16  MaxWeightNet.MW1.Q3  qlen:vector  ETV
attr interpolationmode  sample-hold
attr title  "queue length, vector"
vector 18  MaxWeightNet.MW1.Q4  qlen:vector  ETV
attr interpolationmode  sample-hold
attr title  "queue length, vector"
vector 20  MaxWeightNet.D1  arrivals  ETV
attr interpolationmode  none
vector 21  MaxWeightNet.D2  arrivals  ETV
attr interpolationmode  none
vector 22  MaxWeightNet.D3  arrivals  ETV
attr interpolationmode  none
vector 23  MaxWeightNet.D4  arrivals  ETV
attr interpolationmode  none
vector 13  MaxWeightNet.MW1.Q1  queueingTime:vector  ETV
attr interpolationmode  none
attr title  "queueing time at dequeue, vector"
attr unit  s
vector 19  MaxWeightNet.MW1.Q4  queueingTime:vector  ETV
attr interpolationmode  none
attr title  "queueing time at dequeue, vector"
attr unit  s
vector 15  MaxWeightNet.MW1.Q2  queueingTime:vector  ETV
attr interpolationmode  none
attr title  "queueing time at dequeue, vector"
attr unit  s
vector 17  MaxWeightNet.MW1.Q3  queueingTime:vector  ETV
attr interpolationmode  none
attr title  "queueing time at dequeue, vector"
attr unit  s
0	0	0	1
0	183	0.4	29.244566439655
0	737	0.8	42.670997398498
0	1163	1.2	48.395020557632
0	1559	1.6	50.869100466347
0	1939	2	51.839916217406
0	2317	2.4	52.214949242324
0	2691	2.8	52.342558112565
0	3063	3.2	52.340647596827
0	3475	3.6	52.288248908268
0	4106	4	52.220182096264
0	4492	4.4	52.167068191834
0	4912	4.8	52.086526736127
0	5322	5.2	51.997028024331
0	5734	5.6	51.901149556149
0	6141	6	51.814156414577
0	6559	6.4	51.737743818974
0	6969	6.8	51.67263557322
0	7477	7.2	51.612620530793
0	7910	7.6	51.561195795951
0	8259	8	51.517131787219
0	8663	8.4	51.474911708971
0	9071	8.8	51.427646668238
0	9478	9.2	51.377359503713
0	9883	9.6	51.326425924479
0	10310	10	51.2774340752
0	10721	10.4	51.23214799345
0	11195	10.8	51.190680672224
0	11598	11.2	51.152923278203
0	11943	11.6	51.118132216547
0	12351	12	51.084979918267
0	12762	12.4	51.053597334517
0	13170	12.8	51.024429803226
0	13575	13.2	50.996803349485
0	13980	13.6	50.969738633424
0	14388	14	50.944467333909
0	14799	14.4	50.921040550785
0	15212	14.8	50.89932365541
0	15609	15.2	50.879058684874
0	16007	15.6	50.859827879549
0	16430	16	50.840742282088
0	16835	16.4	50.82207612233
0	17241	16.8	50.803752901724
0	17649	17.2	50.785993273383
0	18060	17.6	50.768985875047
0	18463	18	50.752960336656
0	18882	18.4	50.737912734777
0	19289	18.8	50.723831183451
0	19700	19.2	50.710721551616
0	20111	19.6	50.698545336968
0	20522	20	50.687224886125
0	20928	20.4	50.676681877456
0	21341	20.8	50.666958543226
0	21751	21.2	50.657989308226
0	22169	21.6	50.64981966418
0	22569	22	50.642387644822
0	22972	22.4	50.635711569619
0	23386	22.8	50.62970817083
0	23794	23.2	50.624219771088
0	24199	23.6	50.619231118398
0	24607	24	50.614653019672
0	25023	24.4	50.610363818687
0	25440	24.8	50.606431629701
0	25848	25.2	50.602837089573
0	26261	25.6	50.599666773661
0	26670	26	50.596948375745
0	27083	26.4	50.594584195278
0	27493	26.8	50.592515678125
0	27906	27.2	50.5906736728
0	28318	27.6	50.589055690674
0	28730	28	50.587702493765
0	29137	28.4	50.586561019108
0	29551	28.8	50.585678862884
0	29961	29.2	50.584973210941
0	30375	29.6	50.584388362128
0	30784	30	50.583865721992
0	31192	30.4	50.583436514213
0	31607	30.8	50.583076968718
0	32019	31.2	50.582863819082
0	32429	31.6	50.58277820328
0	32838	32	50.582738782705
0	33258	32.4	50.582786054046
0	33667	32.8	50.582862809997
0	34081	33.2	50.582935082494
0	34488	33.6	50.583003134677
0	34904	34	50.583134767796
0	35308	34.4	50.583361601502
0	35721	34.8	50.583698299001
0	36130	35.2	50.584140482782
0	36547	35.6	50.58461765238
0	36960	36	50.585140842302
0	37367	36.4	50.585764441761
0	37775	36.8	50.586439849848
0	38190	37.2	50.587233892386
0	38601	37.6	50.588060181453
0	39013	38	50.588849584374
0	39428	38.4	50.589712955088
0	39844	38.8	50.590727024218
0	40257	39.2	50.591788038976
0	40661	39.6	50.592843848312
0	41073	40	50.593872405463
0	41485	40.4	50.594824095814
0	41900	40.8	50.595727001948
0	42309	41.2	50.596631487182
0	42725	41.6	50.59747894606
0	43134	42	50.598237676554
0	43545	42.4	50.598988133083
0	43955	42.8	50.599731091911
0	44371	43.2	50.600579312481
0	44779	43.6	50.601575150056
0	45190	44	50.602745575287
0	45599	44.4	50.60399341166
0	46013	44.8	50.605198859507
0	46429	45.2	50.606353396921
0	46841	45.6	50.60747536707
0	47248	46	50.608579185991
0	47666	46.4	50.609725016859
0	48073	46.8	50.6110765788
0	48485	47.2	50.612490603527
0	48902	47.6	50.613951416914
0	49309	48	50.615350038779
0	49720	48.4	50.616514869881
0	50132	48.8	50.617548912234
0	50542	49.2	50.618531539079
0	50956	49.6	50.619538191018
0	51367	50	50.62044865721
0	51778	50.4	50.621205570954
0	52195	50.8	50.621745718331
0	52610	51.2	50.622168044588
0	53015	51.6	50.622609947656
0	53428	52	50.623069760409
0	53839	52.4	50.623456293751
0	54253	52.8	50.623767641991
0	54669	53.2	50.624012951498
0	55078	53.6	50.624285005416
0	55492	54	50.624711118316
0	55905	54.4	50.625202517422
0	56314	54.8	50.625807965343
0	56723	55.2	50.62664684478
0	57144	55.6	50.627620734293
0	57549	56	50.628758716783
0	57956	56.4	50.630013148058
0	58368	56.8	50.631192368977
0	58786	57.2	50.632274480887
0	59190	57.6	50.633270165732
0	59607	58	50.634269925128
0	60020	58.4	50.635333868276
0	60431	58.8	50.636334021429
0	60845	59.2	50.637326426715
0	61261	59.6	50.638264815136
0	61671	60	50.639290194764
0	62083	60.4	50.640381005424
0	62496	60.8	50.641437078531
0	62906	61.2	50.642356569791
0	63316	61.6	50.643120253588
0	63733	62	50.643754112613
0	64143	62.4	50.644345222414
0	64554	62.8	50.644797501274
0	64965	63.2	50.645302593502
0	65376	63.6	50.645860132427
0	65789	64	50.646393254428
0	66205	64.4	50.6469108849
0	66614	64.8	50.647277978473
0	67029	65.2	50.64741419659
0	67438	65.6	50.647358413829
0	67850	66	50.647118524407
0	68263	66.4	50.646681680936
0	68678	66.8	50.646230000631
0	69084	67.2	50.645842400519
0	69503	67.6	50.645619727548
0	69913	68	50.645561790979
0	70326	68.4	50.645614168095
0	70730	68.8	50.645628127692
0	71145	69.2	50.645350401406
0	71553	69.6	50.644784155727
0	71966	70	50.643915399452
0	72378	70.4	50.642673112916
0	72792	70.8	50.641352230602
0	73200	71.2	50.639924054158
0	73613	71.6	50.638710163394
0	74030	72	50.637650060436
0	74443	72.4	50.636613503283
0	74846	72.8	50.635526254304
0	75259	73.2	50.634418453476
0	75670	73.6	50.633369586754
0	76078	74	50.632567375224
0	76487	74.4	50.631945340524
0	76900	74.8	50.631415544859
0	77312	75.2	50.631036199816
0	77726	75.6	50.630893635425
0	78145	76	50.630976590966
0	78554	76.4	50.631179458254
0	78960	76.8	50.631411913805
0	79382	77.2	50.631666872128
0	79798	77.6	50.631904723936
0	80204	78	50.63214255754
0	80615	78.4	50.632471756471
0	81032	78.8	50.632826377894
0	81443	79.2	50.633191573897
0	81856	79.6	50.633535494792
0	82267	80	50.633775311628
0	82678	80.4	50.633847421961
0	83090	80.8	50.633824253917
0	83502	81.2	50.633650742432
0	83915	81.6	50.633359580043
0	84327	82	50.633162089277
0	84742	82.4	50.633133979514
0	85156	82.8	50.633296657121
0	85565	83.2	50.633619114083
0	85975	83.6	50.633924542196
0	86385	84	50.634145404773
0	86794	84.4	50.634320064641
0	87205	84.8	50.634417426143
0	87622	85.2	50.634528582194
0	88029	85.6	50.634638177714
0	88436	86	50.63471919823
0	88858	86.4	50.634681043011
0	89274	86.8	50.634459057164
0	89687	87.2	50.634067908471
0	90097	87.6	50.633520275676
0	90504	88	50.632863071323
0	90920	88.4	50.632218870445
0	91331	88.8	50.631533019879
0	91746	89.2	50.630775422437
0	92155	89.6	50.630080848122
0	92570	90	50.629444160423
0	92981	90.4	50.628926678246
0	93385	90.8	50.628607500596
0	93792	91.2	50.628253347528
0	94211	91.6	50.628089100183
0	94615	92	50.628246910299
0	95032	92.4	50.628803457789
0	95448	92.8	50.629661792462
0	95864	93.2	50.630583499215
0	96265	93.6	50.631569455202
0	96673	94	50.632522266558
0	97093	94.4	50.633244774274
0	97500	94.8	50.633718575825
0	97917	95.2	50.633961827639
0	98331	95.6	50.633753671555
0	98749	96	50.633387778205
0	99159	96.4	50.632885292269
0	99570	96.8	50.632431887422
0	99987	97.2	50.632202641067
0	100393	97.6	50.632134054323
0	100801	98	50.632121682653
0	101213	98.4	50.632187733311
0	101625	98.8	50.632233331198
0	102042	99.2	50.632211808115
0	102450	99.6	50.632211188783
1	0	0	0
1	13	0.1	1
1	35	0.2	1
1	107	0.3	3
1	187	0.4	5
1	461	0.5	36
1	553	0.6	44
1	645	0.7	51
1	741	0.8	59
1	887	0.9	80
1	979	1	88
1	1071	1.1	89
1	1167	1.2	99
1	1283	1.3	106
1	1375	1.4	114
1	1467	1.5	118
1	1563	1.6	123
1	1663	1.7	132
1	1755	1.8	139
1	1847	1.9	144
1	1943	2	148
1	2041	2.1	157
1	2133	2.2	163
1	2225	2.3	169
1	2321	2.4	172
1	2415	2.5	182
1	2507	2.6	182
1	2599	2.7	192
1	2695	2.8	194
1	2787	2.9	201
1	2879	3	206
1	2971	3.1	210
1	3067	3.2	218
1	3159	3.3	219
1	3251	3.4	229
1	3349	3.5	230
1	3479	3.6	238
1	3676	3.7	242
1	3843	3.8	247
1	4000	3.9	253
1	4110	4	254
1	4239	4.1	254
1	4328	4.2	254
1	4409	4.3	254
1	4496	4.4	254
1	4607	4.5	254
1	4711	4.6	262
1	4810	4.7	264
1	4916	4.8	269
1	5018	4.9	274
1	5120	5	276
1	5222	5.1	284
1	5326	5.2	284
1	5429	5.3	294
1	5531	5.4	295
1	5633	5.5	302
1	5738	5.6	306
1	5837	5.7	310
1	5941	5.8	317
1	6039	5.9	318
1	6145	6	328
1	6245	6.1	329
1	6349	6.2	335
1	6460	6.3	339
1	6563	6.4	339
1	6666	6.5	339
1	6767	6.6	339
1	6865	6.7	339
1	6973	6.8	339
1	7081	6.9	339
1	7187	7	339
1	7372	7.1	340
1	7481	7.2	345
1	7657	7.3	345
1	7756	7.4	345
1	7833	7.5	345
1	7914	7.6	345
1	7989	7.7	345
1	8067	7.8	345
1	8159	7.9	345
1	8263	8	345
1	8366	8.1	345
1	8464	8.2	345
1	8566	8.3	345
1	8667	8.4	348
1	8769	8.5	350
1	8868	8.6	351
1	8971	8.7	356
1	9075	8.8	357
1	9173	8.9	360
1	9278	9	361
1	9375	9.1	364
1	9482	9.2	368
1	9585	9.3	370
1	9680	9.4	375
1	9788	9.5	378
1	9887	9.6	381
1	9993	9.7	382
1	10103	9.8	387
1	10200	9.9	392
1	10314	10	393
1	10411	10.1	398
1	10508	10.2	399
1	10605	10.3	405
1	10725	10.4	405
1	10822	10.5	411
1	10962	10.6	412
1	11077	10.7	412
1	11199	10.8	412
1	11304	10.9	412
1	11409	11	412
1	11505	11.1	412
1	11602	11.2	412
1	11680	11.3	412
1	11764	11.4	412
1	11850	11.5	412
1	11947	11.6	415
1	12045	11.7	420
1	12151	11.8	421
1	12245	11.9	426
1	12355	12	427
1	12458	12.1	430
1	12559	12.2	433
1	12659	12.3	434
1	12766	12.4	437
1	12867	12.5	437
1	12968	12.6	438
1	13068	12.7	439
1	13174	12.8	440
1	13274	12.9	440
1	13372	13	440
1	13473	13.1	445
1	13579	13.2	446
1	13678	13.3	448
1	13781	13.4	454
1	13881	13.5	454
1	13984	13.6	460
1	14088	13.7	463
1	14186	13.8	463
1	14286	13.9	463
1	14392	14	463
1	14494	14.1	463
1	14595	14.2	463
1	14694	14.3	463
1	14803	14.4	463
1	14903	14.5	463
1	15005	14.6	463
1	15109	14.7	463
1	15216	14.8	463
1	15314	14.9	463
1	15414	15	463
1	15512	15.1	463
1	15613	15.2	464
1	15710	15.3	465
1	15807	15.4	466
1	15907	15.5	466
1	16011	15.6	467
1	16113	15.7	467
1	16219	15.8	472
1	16329	15.9	475
1	16434	16	476
1	16532	16.1	478
1	16634	16.2	479
1	16733	16.3	483
1	16839	16.4	484
1	16944	16.5	490
1	17041	16.6	490
1	17144	16.7	496
1	17245	16.8	496
1	17347	16.9	500
1	17445	17	501
1	17543	17.1	504
1	17653	17.2	507
1	17756	17.3	507
1	17859	17.4	512
1	17959	17.5	512
1	18064	17.6	514
1	18164	17.7	521
1	18264	17.8	522
1	18368	17.9	528
1	18467	18	529
1	18571	18.1	533
1	18682	18.2	537
1	18777	18.3	539
1	18886	18.4	540
1	18986	18.5	546
1	19087	18.6	547
1	19190	18.7	551
1	19293	18.8	555
1	19397	18.9	556
1	19496	19	561
1	19599	19.1	563
1	19704	19.2	568
1	19808	19.3	568
1	19906	19.4	576
1	20011	19.5	577
1	20115	19.6	581
1	20220	19.7	583
1	20320	19.8	586
1	20423	19.9	587
1	20526	20	592
1	20630	20.1	593
1	20725	20.2	597
1	20826	20.3	600
1	20932	20.4	601
1	21036	20.5	608
1	21138	20.6	610
1	21241	20.7	613
1	21345	20.8	617
1	21446	20.9	619
1	21549	21	625
1	21647	21.1	626
1	21755	21.2	631
1	21856	21.3	635
1	21962	21.4	637
1	22059	21.5	642
1	22173	21.6	645
1	22269	21.7	649
1	22372	21.8	651
1	22470	21.9	655
1	22573	22	656
1	22677	22.1	662
1	22772	22.2	664
1	22874	22.3	668
1	22976	22.4	671
1	23078	22.5	675
1	23179	22.6	677
1	23281	22.7	679
1	23390	22.8	685
1	23488	22.9	685
1	23588	23	690
1	23690	23.1	692
1	23798	23.2	695
1	23897	23.3	700
1	23996	23.4	700
1	24097	23.5	705
1	24203	23.6	707
1	24310	23.7	710
1	24408	23.8	713
1	24511	23.9	715
1	24611	24	718
1	24724	24.1	720
1	24821	24.2	722
1	24926	24.3	725
1	25027	24.4	727
1	25134	24.5	734
1	25234	24.6	736
1	25334	24.7	740
1	25444	24.8	745
1	25545	24.9	746
1	25643	25	751
1	25747	25.1	754
1	25852	25.2	756
1	25953	25.3	760
1	26060	25.4	764
1	26157	25.5	767
1	26265	25.6	770
1	26367	25.7	773
1	26466	25.8	775
1	26568	25.9	779
1	26674	26	782
1	26774	26.1	785
1	26876	26.2	789
1	26984	26.3	791
1	27087	26.4	795
1	27190	26.5	797
1	27293	26.6	801
1	27392	26.7	804
1	27497	26.8	807
1	27599	26.9	811
1	27704	27	812
1	27805	27.1	815
1	27910	27.2	819
1	28014	27.3	821
1	28110	27.4	827
1	28217	27.5	828
1	28322	27.6	832
1	28422	27.7	836
1	28526	27.8	838
1	28625	27.9	844
1	28734	28	846
1	28832	28.1	849
1	28934	28.2	851
1	29037	28.3	856
1	29141	28.4	857
1	29246	28.5	862
1	29343	28.6	865
1	29449	28.7	868
1	29555	28.8	870
1	29655	28.9	874
1	29757	29	876
1	29856	29.1	880
1	29965	29.2	881
1	30067	29.3	886
1	30168	29.4	889
1	30272	29.5	890
1	30379	29.6	895
1	30481	29.7	897
1	30580	29.8	899
1	30682	29.9	905
1	30788	30	906
1	30890	30.1	912
1	30993	30.2	914
1	31092	30.3	918
1	31196	30.4	919
1	31301	30.5	923
1	31404	30.6	924
1	31507	30.7	929
1	31611	30.8	931
1	31714	30.9	937
1	31815	31	940
1	31921	31.1	942
1	32023	31.2	945
1	32122	31.3	948
1	32223	31.4	951
1	32326	31.5	955
1	32433	31.6	957
1	32532	31.7	961
1	32636	31.8	964
1	32737	31.9	965
1	32842	32	969
1	32949	32.1	973
1	33045	32.2	976
1	33154	32.3	979
1	33262	32.4	981
1	33363	32.5	987
1	33468	32.6	988
1	33567	32.7	991
1	33671	32.8	992
1	33775	32.9	997
1	33878	33	999
1	33977	33.1	1002
1	34085	33.2	1006
1	34187	33.3	1009
1	34285	33.4	1011
1	34387	33.5	1014
1	34492	33.6	1017
1	34595	33.7	1022
1	34696	33.8	1025
1	34799	33.9	1029
1	34908	34	1033
1	35008	34.1	1034
1	35108	34.2	1039
1	35211	34.3	1042
1	35312	34.4	1047
1	35410	34.5	1048
1	35516	34.6	1053
1	35617	34.7	1055
1	35725	34.8	1057
1	35830	34.9	1060
1	35929	35	1064
1	36031	35.1	1066
1	36134	35.2	1069
1	36238	35.3	1071
1	36341	35.4	1076
1	36445	35.5	1079
1	36551	35.6	1084
1	36655	35.7	1085
1	36753	35.8	1089
1	36855	35.9	1094
1	36964	36	1096
1	37067	36.1	1102
1	37167	36.2	1103
1	37270	36.3	1107
1	37371	36.4	1110
1	37472	36.5	1112
1	37573	36.6	1116
1	37678	36.7	1119
1	37779	36.8	1120
1	37886	36.9	1127
1	37983	37	1129
1	38088	37.1	1132
1	38194	37.2	1134
1	38298	37.3	1136
1	38397	37.4	1142
1	38501	37.5	1143
1	38605	37.6	1149
1	38714	37.7	1150
1	38815	37.8	1154
1	38916	37.9	1158
1	39017	38	1161
1	39123	38.1	1165
1	39224	38.2	1165
1	39327	38.3	1172
1	39432	38.4	1174
1	39531	38.5	1179
1	39636	38.6	1183
1	39735	38.7	1186
1	39848	38.8	1189
1	39947	38.9	1191
1	40052	39	1194
1	40154	39.1	1197
1	40261	39.2	1201
1	40360	39.3	1204
1	40459	39.4	1205
1	40560	39.5	1209
1	40665	39.6	1211
1	40767	39.7	1215
1	40869	39.8	1218
1	40965	39.9	1224
1	41077	40	1226
1	41177	40.1	1228
1	41281	40.2	1234
1	41385	40.3	1237
1	41489	40.4	1238
1	41596	40.5	1244
1	41690	40.6	1245
1	41798	40.7	1247
1	41904	40.8	1251
1	42005	40.9	1254
1	42107	41	1258
1	42206	41.1	1260
1	42313	41.2	1265
1	42417	41.3	1267
1	42513	41.4	1270
1	42624	41.5	1272
1	42729	41.6	1275
1	42831	41.7	1278
1	42931	41.8	1281
1	43031	41.9	1288
1	43138	42	1288
1	43235	42.1	1295
1	43340	42.2	1297
1	43440	42.3	1299
1	43549	42.4	1301
1	43650	42.5	1305
1	43754	42.6	1308
1	43859	42.7	1311
1	43959	42.8	1318
1	44067	42.9	1318
1	44166	43	1324
1	44271	43.1	1326
1	44375	43.2	1330
1	44479	43.3	1334
1	44579	43.4	1337
1	44676	43.5	1343
1	44783	43.6	1344
1	44884	43.7	1350
1	44986	43.8	1351
1	45086	43.9	1355
1	45194	44	1358
1	45292	44.1	1359
1	45395	44.2	1365
1	45499	44.3	1366
1	45603	44.4	1371
1	45707	44.5	1372
1	45809	44.6	1376
1	45912	44.7	1379
1	46017	44.8	1383
1	46122	44.9	1387
1	46225	45	1389
1	46330	45.1	1395
1	46433	45.2	1395
1	46532	45.3	1401
1	46638	45.4	1404
1	46734	45.5	1407
1	46845	45.6	1411
1	46949	45.7	1412
1	47051	45.8	1419
1	47149	45.9	1420
1	47252	46	1423
1	47355	46.1	1426
1	47457	46.2	1428
1	47555	46.3	1436
1	47670	46.4	1436
1	47770	46.5	1446
1	47868	46.6	1447
1	47972	46.7	1451
1	48077	46.8	1452
1	48178	46.9	1457
1	48277	47	1459
1	48380	47.1	1461
1	48489	47.2	1465
1	48591	47.3	1469
1	48700	47.4	1472
1	48796	47.5	1474
1	48906	47.6	1478
1	49006	47.7	1482
1	49105	47.8	1484
1	49206	47.9	1486
1	49313	48	1490
1	49415	48.1	1492
1	49516	48.2	1498
1	49621	48.3	1500
1	49724	48.4	1503
1	49829	48.5	1506
1	49928	48.6	1510
1	50029	48.7	1513
1	50136	48.8	1519
1	50235	48.9	1521
1	50335	49	1525
1	50439	49.1	1528
1	50546	49.2	1530
1	50646	49.3	1536
1	50750	49.4	1537
1	50852	49.5	1541
1	50960	49.6	1543
1	51060	49.7	1545
1	51162	49.8	1548
1	51264	49.9	1553
1	51371	50	1554
1	51473	50.1	1556
1	51572	50.2	1561
1	51677	50.3	1564
1	51782	50.4	1567
1	51883	50.5	1568
1	51988	50.6	1575
1	52091	50.7	1577
1	52199	50.8	1581
1	52300	50.9	1584
1	52406	51	1587
1	52507	51.1	1592
1	52614	51.2	1592
1	52713	51.3	1598
1	52813	51.4	1600
1	52914	51.5	1605
1	53019	51.6	1609
1	53122	51.7	1611
1	53223	51.8	1614
1	53327	51.9	1615
1	53432	52	1620
1	53530	52.1	1621
1	53637	52.2	1625
1	53741	52.3	1629
1	53843	52.4	1632
1	53949	52.5	1635
1	54047	52.6	1638
1	54153	52.7	1641
1	54257	52.8	1646
1	54363	52.9	1649
1	54461	53	1651
1	54569	53.1	1656
1	54673	53.2	1660
1	54777	53.3	1663
1	54877	53.4	1666
1	54979	53.5	1670
1	55082	53.6	1672
1	55185	53.7	1675
1	55291	53.8	1680
1	55392	53.9	1683
1	55496	54	1689
1	55599	54.1	1689
1	55703	54.2	1694
1	55799	54.3	1697
1	55909	54.4	1699
1	56008	54.5	1704
1	56107	54.6	1706
1	56210	54.7	1711
1	56318	54.8	1715
1	56418	54.9	1719
1	56519	55	1724
1	56622	55.1	1724
1	56727	55.2	1732
1	56833	55.3	1733
1	56937	55.4	1738
1	57035	55.5	1740
1	57148	55.6	1744
1	57249	55.7	1749
1	57347	55.8	1751
1	57452	55.9	1755
1	57553	56	1756
1	57656	56.1	1762
1	57758	56.2	1764
1	57856	56.3	1768
1	57960	56.4	1770
1	58064	56.5	1775
1	58167	56.6	1776
1	58270	56.7	1780
1	58372	56.8	1785
1	58477	56.9	1785
1	58582	57	1792
1	58688	57.1	1794
1	58790	57.2	1796
1	58892	57.3	1802
1	58992	57.4	1804
1	59093	57.5	1808
1	59194	57.6	1811
1	59301	57.7	1815
1	59401	57.8	1820
1	59502	57.9	1822
1	59611	58	1826
1	59713	58.1	1830
1	59814	58.2	1832
1	59923	58.3	1834
1	60024	58.4	1841
1	60126	58.5	1842
1	60228	58.6	1845
1	60329	58.7	1848
1	60435	58.8	1852
1	60539	58.9	1856
1	60641	59	1860
1	60741	59.1	1863
1	60849	59.2	1864
1	60950	59.3	1870
1	61056	59.4	1874
1	61155	59.5	1877
1	61265	59.6	1881
1	61366	59.7	1886
1	61466	59.8	1888
1	61572	59.9	1891
1	61675	60	1896
1	61776	60.1	1899
1	61877	60.2	1902
1	61981	60.3	1905
1	62087	60.4	1908
1	62187	60.5	1910
1	62291	60.6	1914
1	62392	60.7	1918
1	62500	60.8	1919
1	62597	60.9	1923
1	62704	61	1927
1	62802	61.1	1931
1	62910	61.2	1935
1	63013	61.3	1938
1	63112	61.4	1942
1	63214	61.5	1942
1	63320	61.6	1948
1	63425	61.7	1951
1	63529	61.8	1953
1	63631	61.9	1958
1	63737	62	1960
1	63834	62.1	1965
1	63936	62.2	1967
1	64036	62.3	1971
1	64147	62.4	1975
1	64248	62.5	1976
1	64351	62.6	1981
1	64449	62.7	1982
1	64558	62.8	1987
1	64661	62.9	1993
1	64759	63	1995
1	64862	63.1	2001
1	64969	63.2	2002
1	65071	63.3	2007
1	65177	63.4	2009
1	65278	63.5	2013
1	65380	63.6	2014
1	65480	63.7	2019
1	65587	63.8	2021
1	65686	63.9	2025
1	65793	64	2027
1	65898	64.1	2030
1	65999	64.2	2036
1	66100	64.3	2038
1	66209	64.4	2041
1	66311	64.5	2045
1	66412	64.6	2048
1	66516	64.7	2050
1	66618	64.8	2054
1	66720	64.9	2055
1	66825	65	2059
1	66923	65.1	2060
1	67033	65.2	2065
1	67130	65.3	2067
1	67235	65.4	2071
1	67335	65.5	2075
1	67442	65.6	2077
1	67545	65.7	2082
1	67646	65.8	2082
1	67745	65.9	2088
1	67854	66	2090
1	67956	66.1	2092
1	68060	66.2	2099
1	68160	66.3	2100
1	68267	66.4	2103
1	68367	66.5	2108
1	68473	66.6	2110
1	68577	66.7	2114
1	68682	66.8	2116
1	68784	66.9	2119
1	68881	67	2126
1	68986	67.1	2127
1	69088	67.2	2134
1	69192	67.3	2134
1	69299	67.4	2140
1	69398	67.5	2143
1	69507	67.6	2147
1	69604	67.7	2151
1	69706	67.8	2154
1	69814	67.9	2157
1	69917	68	2157
1	70023	68.1	2163
1	70120	68.2	2165
1	70224	68.3	2168
1	70330	68.4	2171
1	70428	68.5	2173
1	70527	68.6	2178
1	70631	68.7	2179
1	70734	68.8	2180
1	70835	68.9	2184
1	70941	69	2186
1	71039	69.1	2189
1	71149	69.2	2193
1	71245	69.3	2196
1	71349	69.4	2200
1	71450	69.5	2201
1	71557	69.6	2204
1	71662	69.7	2207
1	71761	69.8	2207
1	71864	69.9	2213
1	71970	70	2214
1	72071	70.1	2216
1	72173	70.2	2221
1	72273	70.3	2225
1	72382	70.4	2228
1	72486	70.5	2231
1	72585	70.6	2233
1	72689	70.7	2239
1	72796	70.8	2239
1	72894	70.9	2243
1	73002	71	2247
1	73099	71.1	2249
1	73204	71.2	2256
1	73310	71.3	2258
1	73410	71.4	2261
1	73515	71.5	2266
1	73617	71.6	2269
1	73723	71.7	2272
1	73823	71.8	2275
1	73928	71.9	2278
1	74034	72	2280
1	74139	72.1	2283
1	74243	72.2	2283
1	74340	72.3	2285
1	74447	72.4	2288
1	74543	72.5	2291
1	74647	72.6	2297
1	74749	72.7	2298
1	74850	72.8	2305
1	74957	72.9	2307
1	75055	73	2313
1	75160	73.1	2313
1	75263	73.2	2319
1	75361	73.3	2321
1	75469	73.4	2326
1	75564	73.5	2328
1	75674	73.6	2332
1	75773	73.7	2335
1	75879	73.8	2338
1	75979	73.9	2341
1	76082	74	2343
1	76186	74.1	2349
1	76287	74.2	2351
1	76383	74.3	2354
1	76491	74.4	2357
1	76593	74.5	2359
1	76695	74.6	2366
1	76795	74.7	2368
1	76904	74.8	2371
1	77007	74.9	2375
1	77111	75	2378
1	77213	75.1	2383
1	77316	75.2	2386
1	77422	75.3	2391
1	77520	75.4	2392
1	77626	75.5	2398
1	77730	75.6	2400
1	77834	75.7	2405
1	77939	75.8	2407
1	78038	75.9	2410
1	78149	76	2413
1	78249	76.1	2416
1	78352	76.2	2421
1	78451	76.3	2422
1	78558	76.4	2427
1	78657	76.5	2428
1	78761	76.6	2434
1	78861	76.7	2437
1	78964	76.8	2439
1	79072	76.9	2443
1	79170	77	2446
1	79279	77.1	2451
1	79386	77.2	2453
1	79487	77.3	2457
1	79593	77.4	2459
1	79694	77.5	2461
1	79802	77.6	2467
1	79900	77.7	2469
1	80004	77.8	2472
1	80105	77.9	2477
1	80208	78	2477
1	80313	78.1	2485
1	80414	78.2	2487
1	80515	78.3	2492
1	80619	78.4	2495
1	80721	78.5	2498
1	80828	78.6	2500
1	80928	78.7	2502
1	81036	78.8	2507
1	81137	78.9	2509
1	81239	79	2514
1	81338	79.1	2516
1	81447	79.2	2520
1	81546	79.3	2521
1	81649	79.4	2525
1	81748	79.5	2529
1	81860	79.6	2532
1	81961	79.7	2536
1	82065	79.8	2538
1	82164	79.9	2542
1	82271	80	2543
1	82378	80.1	2548
1	82477	80.2	2550
1	82578	80.3	2552
1	82682	80.4	2557
1	82784	80.5	2559
1	82884	80.6	2563
1	82991	80.7	2565
1	83094	80.8	2566
1	83195	80.9	2573
1	83295	81	2573
1	83399	81.1	2579
1	83506	81.2	2580
1	83607	81.3	2585
1	83709	81.4	2588
1	83813	81.5	2591
1	83919	81.6	2597
1	84023	81.7	2598
1	84124	81.8	2605
1	84226	81.9	2606
1	84331	82	2612
1	84436	82.1	2613
1	84537	82.2	2618
1	84640	82.3	2620
1	84746	82.4	2624
1	84848	82.5	2628
1	84954	82.6	2631
1	85053	82.7	2634
1	85160	82.8	2637
1	85261	82.9	2642
1	85363	83	2642
1	85464	83.1	2649
1	85569	83.2	2651
1	85670	83.3	2654
1	85776	83.4	2656
1	85875	83.5	2660
1	85979	83.6	2662
1	86079	83.7	2664
1	86179	83.8	2670
1	86279	83.9	2671
1	86389	84	2678
1	86487	84.1	2679
1	86593	84.2	2681
1	86690	84.3	2686
1	86798	84.4	2688
1	86899	84.5	2692
1	87002	84.6	2695
1	87102	84.7	2699
1	87209	84.8	2704
1	87318	84.9	2705
1	87414	85	2709
1	87519	85.1	2711
1	87626	85.2	2717
1	87726	85.3	2719
1	87827	85.4	2721
1	87927	85.5	2726
1	88033	85.6	2726
1	88134	85.7	2733
1	88233	85.8	2734
1	88340	85.9	2740
1	88440	86	2740
1	88556	86.1	2743
1	88653	86.2	2745
1	88758	86.3	2747
1	88862	86.4	2751
1	88968	86.5	2753
1	89071	86.6	2760
1	89169	86.7	2760
1	89278	86.8	2764
1	89381	86.9	2767
1	89483	87	2768
1	89581	87.1	2774
1	89691	87.2	2776
1	89791	87.3	2780
1	89892	87.4	2782
1	89993	87.5	2785
1	90101	87.6	2788
1	90202	87.7	2790
1	90302	87.8	2795
1	90406	87.9	2796
1	90508	88	2803
1	90614	88.1	2804
1	90715	88.2	2809
1	90818	88.3	2812
1	90924	88.4	2812
1	91024	88.5	2818
1	91126	88.6	2818
1	91225	88.7	2824
1	91335	88.8	2825
1	91434	88.9	2828
1	91538	89	2829
1	91645	89.1	2834
1	91750	89.2	2835
1	91859	89.3	2842
1	91954	89.4	2846
1	92057	89.5	2850
1	92159	89.6	2856
1	92267	89.7	2856
1	92365	89.8	2859
1	92463	89.9	2863
1	92574	90	2864
1	92670	90.1	2869
1	92775	90.2	2871
1	92874	90.3	2876
1	92985	90.4	2879
1	93084	90.5	2881
1	93186	90.6	2886
1	93284	90.7	2887
1	93389	90.8	2892
1	93490	90.9	2893
1	93589	91	2897
1	93695	91.1	2900
1	93796	91.2	2907
1	93898	91.3	2909
1	94003	91.4	2914
1	94103	91.5	2919
1	94215	91.6	2921
1	94314	91.7	2927
1	94414	91.8	2929
1	94517	91.9	2933
1	94619	92	2936
1	94722	92.1	2939
1	94823	92.2	2943
1	94933	92.3	2946
1	95036	92.4	2952
1	95141	92.5	2954
1	95246	92.6	2959
1	95343	92.7	2963
1	95452	92.8	2966
1	95550	92.9	2967
1	95657	93	2973
1	95755	93.1	2975
1	95868	93.2	2977
1	95966	93.3	2981
1	96065	93.4	2986
1	96167	93.5	2988
1	96269	93.6	2991
1	96370	93.7	2995
1	96468	93.8	2999
1	96574	93.9	3000
1	96677	94	3002
1	96789	94.1	3006
1	96887	94.2	3006
1	96990	94.3	3013
1	97097	94.4	3014
1	97196	94.5	3017
1	97300	94.6	3022
1	97401	94.7	3024
1	97504	94.8	3027
1	97613	94.9	3028
1	97710	95	3032
1	97818	95.1	3035
1	97921	95.2	3036
1	98023	95.3	3040
1	98126	95.4	3043
1	98224	95.5	3043
1	98335	95.6	3049
1	98435	95.7	3052
1	98540	95.8	3056
1	98644	95.9	3061
1	98753	96	3061
1	98856	96.1	3068
1	98954	96.2	3070
1	99056	96.3	3074
1	99163	96.4	3077
1	99260	96.5	3079
1	99363	96.6	3083
1	99467	96.7	3086
1	99574	96.8	3091
1	99677	96.9	3093
1	99780	97	3097
1	99885	97.1	3102
1	99991	97.2	3105
1	100090	97.3	3107
1	100193	97.4	3112
1	100296	97.5	3116
1	100397	97.6	3118
1	100502	97.7	3119
1	100601	97.8	3125
1	100705	97.9	3127
1	100805	98	3130
1	100908	98.1	3134
1	101011	98.2	3136
1	101110	98.3	3140
1	101217	98.4	3143
1	101318	98.5	3146
1	101419	98.6	3151
1	101520	98.7	3152
1	101629	98.8	3157
1	101731	98.9	3158
1	101833	99	3163
1	101938	99.1	3166
1	102046	99.2	3169
1	102142	99.3	3174
1	102245	99.4	3174
1	102349	99.5	3181
1	102454	99.6	3182
1	102555	99.7	3187
1	102658	99.8	3191
1	102762	99.9	3194
2	0	0	1
2	184	0.4	26.691991440774
2	738	0.8	40.288545096144
2	1164	1.2	47.317995848765
2	1560	1.6	50.952238697064
2	1940	2	52.831150940027
2	2318	2.4	53.802553062593
2	2692	2.8	54.304770282827
2	3064	3.2	54.564417786617
2	3476	3.6	54.698656166959
2	4107	4	54.112311469113
2	4493	4.4	53.64578775021
2	4913	4.8	53.274176710936
2	5323	5.2	52.97265160993
2	5735	5.6	52.724070745173
2	6142	6	52.516569525661
2	6560	6.4	52.341207785678
2	6970	6.8	52.194628993909
2	7478	7.2	52.06526614442
2	7911	7.6	51.955853617973
2	8260	8	51.854227416027
2	8664	8.4	51.7608298844
2	9072	8.8	51.675262107518
2	9479	9.2	51.597676995923
2	9884	9.6	51.527998460333
2	10311	10	51.46396166449
2	10722	10.4	51.405551262725
2	11196	10.8	51.352309778558
2	11599	11.2	51.304545539665
2	11944	11.6	51.260814158506
2	12352	12	51.217371124353
2	12763	12.4	51.175062598774
2	13171	12.8	51.135314237621
2	13576	13.2	51.099143506149
2	13981	13.6	51.066114453399
2	14389	14	51.035936502941
2	14800	14.4	51.008196827549
2	15213	14.8	50.982688595974
2	15610	15.2	50.9594481137
2	16008	15.6	50.938434091646
2	16431	16	50.919165306771
2	16836	16.4	50.901394013474
2	17242	16.8	50.884772894762
2	17650	17.2	50.868676694671
2	18061	17.6	50.853135851614
2	18464	18	50.837750080561
2	18883	18.4	50.822519878235
2	19290	18.8	50.807596986502
2	19701	19.2	50.793392538851
2	20112	19.6	50.780116965251
2	20523	20	50.767756744553
2	20929	20.4	50.756283253868
2	21342	20.8	50.745645658336
2	21752	21.2	50.735722855653
2	22170	21.6	50.726419597627
2	22570	22	50.717729842952
2	22973	22.4	50.709582161635
2	23387	22.8	50.701910749454
2	23795	23.2	50.694742720393
2	24200	23.6	50.688097806233
2	24608	24	50.681925576888
2	25024	24.4	50.676260895233
2	25441	24.8	50.670923120864
2	25849	25.2	50.665728641118
2	26262	25.6	50.660724401373
2	26671	26	50.65582964164
2	27084	26.4	50.651107426137
2	27494	26.8	50.646590356815
2	27907	27.2	50.642236812053
2	28319	27.6	50.638064028756
2	28731	28	50.634042068704
2	29138	28.4	50.630335838297
2	29552	28.8	50.62696839024
2	29962	29.2	50.623990569316
2	30376	29.6	50.621272896232
2	30785	30	50.618662520662
2	31193	30.4	50.616054617895
2	31608	30.8	50.613426140454
2	32020	31.2	50.610766566798
2	32430	31.6	50.608154874
2	32839	32	50.605676903204
2	33259	32.4	50.603284155973
2	33668	32.8	50.60098931691
2	34082	33.2	50.598828657965
2	34489	33.6	50.596769254607
2	34905	34	50.594841991731
2	35309	34.4	50.593073682773
2	35722	34.8	50.591394396456
2	36131	35.2	50.589755266172
2	36548	35.6	50.58811550084
2	36961	36	50.586508326595