version 2
run General-0-20140624-01:59:17-3384
attr configname General
attr datetime 20140624-01:59:17
attr experiment General
attr inifile maxWeightNet.ini
attr iterationvars ""
attr iterationvars2 $repetition=0
attr measurement ""
attr network MaxWeightNet
attr processid 3384
attr repetition 0
attr replication #0
attr resultdir results
attr runnumber 0
attr seedset 0

vector 0  MaxWeightNet.S1  cwnd:vector  ETV
attr interpolationmode  sample-hold
attr title  "window length, vector"
vector 1  MaxWeightNet.S1  seqnum:vector  ETV
attr interpolationmode  sample-hold
attr title  "ack receive, vector"
vector 2  MaxWeightNet.S2  cwnd:vector  ETV
attr interpolationmode  sample-hold
attr title  "window length, vector"
vector 3  MaxWeightNet.S2  seqnum:vector  ETV
attr interpolationmode  sample-hold
attr title  "ack receive, vector"
vector 4  MaxWeightNet.S3  cwnd:vector  ETV
attr interpolationmode  sample-hold
attr title  "window length, vector"
vector 5  MaxWeightNet.S3  seqnum:vector  ETV
attr interpolationmode  sample-hold
attr title  "ack receive, vector"
vector 6  MaxWeightNet.S4  cwnd:vector  ETV
attr interpolationmode  sample-hold
attr title  "window length, vector"
vector 7  MaxWeightNet.S4  seqnum:vector  ETV
attr interpolationmode  sample-hold
attr title  "ack receive, vector"
vector 8  MaxWeightNet.D1  arrive:vector  ETV
attr interpolationmode  sample-hold
attr title  "message arrived, vector"
vector 9  MaxWeightNet.D2  arrive:vector  ETV
attr interpolationmode  sample-hold
attr title  "message arrived, vector"
vector 10  MaxWeightNet.D3  arrive:vector  ETV
attr interpolationmode  sample-hold
attr title  "message arrived, vector"
vector 11  MaxWeightNet.D4  arrive:vector  ETV
attr interpolationmode  sample-hold
attr title  "message arrived, vector"
vector 12  MaxWeightNet.MW1.Q1  qlen:vector  ETV
attr interpolationmode  sample-hold
attr title  "queue length, vector"
vector 14  MaxWeightNet.MW1.Q2  qlen:vector  ETV
attr interpolationmode  sample-hold
attr title  "queue length, vector"
vector 16  MaxWeightNet.MW1.Q3  qlen:vector  ETV
attr interpolationmode  sample-hold
attr title  "queue length, vector"
vector 18  MaxWeightNet.MW1.Q4  qlen:vector  ETV
attr interpolationmode  sample-hold
attr title  "queue length, vector"
vector 13  MaxWeightNet.MW1.Q1  queueingTime:vector  ETV
attr interpolationmode  none
attr title  "queueing time at dequeue, vector"
attr unit  s
vector 20  MaxWeightNet.D1  arrivals  ETV
attr interpolationmode  none
vector 19  MaxWeightNet.MW1.Q4  queueingTime:vector  ETV
attr interpolationmode  none
attr title  "queueing time at dequeue, vector"
attr unit  s
vector 23  MaxWeightNet.D4  arrivals  ETV
attr interpolationmode  none
vector 15  MaxWeightNet.MW1.Q2  queueingTime:vector  ETV
attr interpolationmode  none
attr title  "queueing time at dequeue, vector"
attr unit  s
vector 21  MaxWeightNet.D2  arrivals  ETV
attr interpolationmode  none
vector 17  MaxWeightNet.MW1.Q3  queueingTime:vector  ETV
attr interpolationmode  none
attr title  "queueing time at dequeue, vector"
attr unit  s
vector 22  MaxWeightNet.D3  arrivals  ETV
attr interpolationmode  none
0	0	0	1
0	67	0.1	2
0	167	0.2	5
0	279	0.3	7
0	391	0.4	11
0	503	0.5	15
0	615	0.6	17
0	727	0.7	17
0	839	0.8	17
0	951	0.9	17
0	1063	1	17
0	1175	1.1	17
0	1287	1.2	17
0	1399	1.3	17
0	1510	1.4	17
0	1612	1.5	17
0	1714	1.6	17
0	1816	1.7	17
0	1918	1.8	17
0	2020	1.9	17
0	2122	2	17
0	2224	2.1	17
0	2326	2.2	17
0	2428	2.3	17
0	2530	2.4	17
0	2632	2.5	17
0	2734	2.6	17
0	2836	2.7	17
0	2938	2.8	17
0	3040	2.9	17
0	3146	3	17
0	3256	3.1	17
0	3378	3.2	17
0	3506	3.3	17
0	3634	3.4	2
0	3758	3.5	1
0	3882	3.6	1
0	4004	3.7	1
0	4126	3.8	1
0	4248	3.9	1
0	4370	4	1
0	4492	4.1	1
0	4614	4.2	1
0	4736	4.3	1
0	4858	4.4	1
0	4980	4.5	1
0	5090	4.6	1
0	5212	4.7	1
0	5334	4.8	1
0	5456	4.9	1
0	5578	5	1
0	5700	5.1	1
0	5822	5.2	1
0	5944	5.3	1
0	6066	5.4	1
0	6188	5.5	1
0	6310	5.6	1
0	6432	5.7	1
0	6554	5.8	1
0	6676	5.9	1
0	6798	6	1
0	6920	6.1	1
0	7044	6.2	1
0	7173	6.3	1
0	7298	6.4	1
0	7421	6.5	1
0	7546	6.6	1
0	7668	6.7	1
0	7790	6.8	1
0	7912	6.9	1
0	8034	7	1
0	8156	7.1	1
0	8278	7.2	1
0	8400	7.3	1
0	8522	7.4	1
0	8644	7.5	1
0	8746	7.6	1
0	8852	7.7	1
0	8963	7.8	1
0	9070	7.9	1
0	9177	8	1
0	9284	8.1	1
0	9391	8.2	1
0	9498	8.3	1
0	9605	8.4	1
0	9712	8.5	1
0	9822	8.6	1
0	9944	8.7	1
0	10066	8.8	1
0	10188	8.9	1
0	10310	9	1
0	10432	9.1	1
0	10554	9.2	1
0	10682	9.3	1
0	10804	9.4	1
0	10926	9.5	1
0	11051	9.6	1
0	11173	9.7	1
0	11295	9.8	1
0	11417	9.9	1
0	11539	10	1
0	11661	10.1	1
0	11783	10.2	1
0	11905	10.3	1
0	12027	10.4	1
0	12149	10.5	1
0	12263	10.6	1
0	12375	10.7	1
0	12472	10.8	1
0	12559	10.9	1
0	12651	11	1
0	12748	11.1	1
0	12845	11.2	1
0	12942	11.3	1
0	13039	11.4	1
0	13136	11.5	1
0	13230	11.6	1
0	13322	11.7	1
0	13424	11.8	1
0	13546	11.9	1
0	13678	12	1
0	13803	12.1	1
0	13925	12.2	1
0	14053	12.3	1
0	14175	12.4	1
0	14297	12.5	1
0	14422	12.6	1
0	14544	12.7	1
0	14666	12.8	1
0	14788	12.9	1
0	14910	13	1
0	15032	13.1	1
0	15154	13.2	1
0	15276	13.3	1
0	15398	13.4	1
0	15520	13.5	1
0	15642	13.6	1
0	15764	13.7	1
0	15876	13.8	1
0	15984	13.9	1
0	16094	14	1
0	16206	14.1	1
0	16318	14.2	1
0	16430	14.3	1
0	16542	14.4	1
0	16654	14.5	1
0	16764	14.6	1
0	16870	14.7	1
0	16980	14.8	1
0	17098	14.9	1
0	17220	15	1
0	17342	15.1	1
0	17455	15.2	1
0	17580	15.3	1
0	17702	15.4	1
0	17824	15.5	1
0	17949	15.6	1
0	18071	15.7	1
0	18193	15.8	1
0	18315	15.9	1
0	18437	16	1
0	18559	16.1	1
0	18681	16.2	1
0	18803	16.3	1
0	18925	16.4	1
0	19047	16.5	1
0	19169	16.6	1
0	19291	16.7	1
0	19413	16.8	1
0	19535	16.9	1
0	19657	17	1
0	19779	17.1	1
0	19901	17.2	1
0	20023	17.3	1
0	20145	17.4	1
0	20267	17.5	1
0	20389	17.6	1
0	20511	17.7	1
0	20633	17.8	1
0	20755	17.9	1
0	20877	18	1
0	20999	18.1	1
0	21109	18.2	1
0	21220	18.3	1
0	21326	18.4	1
0	21437	18.5	1
0	21547	18.6	1
0	21654	18.7	1
0	21761	18.8	1
0	21868	18.9	1
0	21975	19	1
0	22082	19.1	1
0	22189	19.2	1
0	22308	19.3	1
0	22430	19.4	1
0	22552	19.5	1
0	22674	19.6	1
0	22796	19.7	1
0	22918	19.8	1
0	23040	19.9	1
0	23162	20	1
0	23284	20.1	1
0	23406	20.2	1
0	23528	20.3	1
0	23650	20.4	1
0	23772	20.5	1
0	23894	20.6	1
0	24016	20.7	1
0	24138	20.8	1
0	24260	20.9	1
0	24382	21	1
0	24504	21.1	1
0	24622	21.2	1
0	24740	21.3	1
0	24846	21.4	1
0	24935	21.5	1
0	25025	21.6	1
0	25122	21.7	1
0	25219	21.8	1
0	25316	21.9	1
0	25413	22	1
0	25510	22.1	1
0	25607	22.2	1
0	25697	22.3	1
0	25794	22.4	1
0	25906	22.5	1
0	26038	22.6	1
0	26167	22.7	1
0	26289	22.8	1
0	26411	22.9	1
0	26533	23	1
0	26655	23.1	1
0	26777	23.2	1
0	26899	23.3	1
0	27021	23.4	1
0	27143	23.5	1
0	27265	23.6	1
0	27387	23.7	1
0	27509	23.8	1
0	27631	23.9	1
0	27753	24	1
0	27875	24.1	1
0	27997	24.2	1
0	28125	24.3	1
0	28243	24.4	1
0	28351	24.5	1
0	28462	24.6	1
0	28574	24.7	1
0	28686	24.8	1
0	28798	24.9	1
0	28910	25	1
0	29022	25.1	1
0	29134	25.2	1
0	29240	25.3	1
0	29348	25.4	1
0	29462	25.5	1
0	29584	25.6	1
0	29706	25.7	1
0	29825	25.8	1
0	29938	25.9	1
0	30060	26	1
0	30182	26.1	1
0	30304	26.2	1
0	30426	26.3	1
0	30548	26.4	1
0	30670	26.5	1
0	30792	26.6	1
0	30914	26.7	1
0	31036	26.8	1
0	31158	26.9	1
0	31280	27	1
0	31402	27.1	1
0	31524	27.2	1
0	31652	27.3	1
0	31774	27.4	1
0	31896	27.5	1
0	32021	27.6	1
0	32143	27.7	1
0	32265	27.8	1
0	32387	27.9	1
0	32509	28	1
0	32631	28.1	1
0	32753	28.2	1
0	32875	28.3	1
0	32997	28.4	1
0	33119	28.5	1
0	33241	28.6	1
0	33363	28.7	1
0	33483	28.8	1
0	33584	28.9	1
0	33690	29	1
0	33801	29.1	1
0	33908	29.2	1
0	34015	29.3	1
0	34122	29.4	1
0	34229	29.5	1
0	34336	29.6	1
0	34443	29.7	1
0	34550	29.8	1
0	34663	29.9	1
0	34785	30	1
0	34907	30.1	1
0	35029	30.2	1
0	35157	30.3	1
0	35279	30.4	1
0	35401	30.5	1
0	35526	30.6	1
0	35648	30.7	1
0	35770	30.8	1
0	35892	30.9	1
0	36014	31	1
0	36136	31.1	1
0	36258	31.2	1
0	36380	31.3	1
0	36502	31.4	1
0	36624	31.5	1
0	36746	31.6	1
0	36868	31.7	1
0	36990	31.8	1
0	37102	31.9	1
0	37213	32	1
0	37308	32.1	1
0	37395	32.2	1
0	37487	32.3	1
0	37584	32.4	1
0	37681	32.5	1
0	37778	32.6	1
0	37875	32.7	1
0	37972	32.8	1
0	38063	32.9	1
0	38160	33	1
0	38257	33.1	1
0	38389	33.2	1
0	38527	33.3	1
0	38650	33.4	1
0	38772	33.5	1
0	38897	33.6	1
0	39019	33.7	1
0	39141	33.8	1
0	39263	33.9	1
0	39385	34	1
0	39507	34.1	1
0	39629	34.2	1
0	39751	34.3	1
0	39873	34.4	1
0	39995	34.5	1
0	40117	34.6	1
0	40239	34.7	1
0	40361	34.8	1
0	40483	34.9	1
0	40604	35	1
0	40715	35.1	1
0	40823	35.2	1
0	40933	35.3	1
0	41045	35.4	1
0	41157	35.5	1
0	41269	35.6	1
0	41381	35.7	1
0	41493	35.8	1
0	41601	35.9	1
0	41709	36	1
0	41817	36.1	1
0	41939	36.2	1
0	42067	36.3	1
0	42189	36.4	1
0	42299	36.5	1
0	42424	36.6	1
0	42546	36.7	1
0	42668	36.8	1
0	42790	36.9	1
0	42912	37	1
0	43034	37.1	1
0	43156	37.2	1
0	43278	37.3	1
0	43400	37.4	1
0	43522	37.5	1
0	43644	37.6	1
0	43766	37.7	1
0	43888	37.8	1
0	44010	37.9	1
0	44132	38	1
0	44254	38.1	1
0	44376	38.2	1
0	44498	38.3	1
0	44620	38.4	1
0	44742	38.5	1
0	44864	38.6	1
0	44986	38.7	1
0	45108	38.8	1
0	45230	38.9	1
0	45352	39	1
0	45474	39.1	1
0	45596	39.2	1
0	45724	39.3	1
0	45846	39.4	1
0	45951	39.5	1
0	46061	39.6	1
0	46171	39.7	1
0	46278	39.8	1
0	46385	39.9	1
0	46492	40	1
0	46599	40.1	1
0	46706	40.2	1
0	46813	40.3	1
0	46920	40.4	1
0	47026	40.5	1
0	47149	40.6	1
0	47271	40.7	1
0	47393	40.8	1
0	47515	40.9	1
0	47637	41	1
0	47759	41.1	1
0	47881	41.2	1
0	48003	41.3	1
0	48125	41.4	1
0	48247	41.5	1
0	48369	41.6	1
0	48491	41.7	1
0	48613	41.8	1
0	48735	41.9	1
0	48857	42	1
0	48979	42.1	1
0	49101	42.2	1
0	49229	42.3	1
0	49351	42.4	1
0	49467	42.5	1
0	49582	42.6	1
0	49687	42.7	1
0	49774	42.8	1
0	49861	42.9	1
0	49958	43	1
0	50055	43.1	1
0	50152	43.2	1
0	50249	43.3	1
0	50346	43.4	1
0	50438	43.5	1
0	50535	43.6	1
0	50627	43.7	1
0	50749	43.8	1
0	50881	43.9	1
0	51008	44	1
0	51130	44.1	1
0	51252	44.2	1
0	51374	44.3	1
0	51496	44.4	1
0	51618	44.5	1
0	51740	44.6	1
0	51862	44.7	1
0	51984	44.8	1
0	52106	44.9	1
0	52228	45	1
0	52350	45.1	1
0	52472	45.2	1
0	52600	45.3	1
0	52722	45.4	1
0	52844	45.5	1
0	52969	45.6	1
0	53085	45.7	1
0	53193	45.8	1
0	53301	45.9	1
0	53413	46	1
0	53525	46.1	1
0	53637	46.2	1
0	53749	46.3	1
0	53861	46.4	1
0	53971	46.5	1
0	54079	46.6	1
0	54185	46.7	1
0	54303	46.8	1
0	54425	46.9	1
0	54547	47	1
0	54663	47.1	1
0	54779	47.2	1
0	54901	47.3	1
0	55023	47.4	1
0	55145	47.5	1
0	55267	47.6	1
0	55389	47.7	1
0	55511	47.8	1
0	55633	47.9	1
0	55755	48	1
0	55877	48.1	1
0	55999	48.2	1
0	56127	48.3	1
0	56249	48.4	1
0	56371	48.5	1
0	56496	48.6	1
0	56618	48.7	1
0	56740	48.8	1
0	56862	48.9	1
0	56984	49	1
0	57106	49.1	1
0	57228	49.2	1
0	57350	49.3	1
0	57472	49.4	1
0	57594	49.5	1
0	57716	49.6	1
0	57838	49.7	1
0	57960	49.8	1
0	58082	49.9	1
0	58204	50	1
0	58319	50.1	1
0	58422	50.2	1
0	58528	50.3	1
0	58639	50.4	1
0	58746	50.5	1
0	58853	50.6	1
0	58960	50.7	1
0	59067	50.8	1
0	59174	50.9	1
0	59281	51	1
0	59388	51.1	1
0	59504	51.2	1
0	59632	51.3	1
0	59754	51.4	1
0	59876	51.5	1
0	60001	51.6	1
0	60123	51.7	1
0	60245	51.8	1
0	60367	51.9	1
0	60489	52	1
0	60611	52.1	1
0	60733	52.2	1
0	60855	52.3	1
0	60977	52.4	1
0	61099	52.5	1
0	61221	52.6	1
0	61343	52.7	1
0	61465	52.8	1
0	61587	52.9	1
0	61709	53	1
0	61829	53.1	1
0	61941	53.2	1
0	62052	53.3	1
0	62139	53.4	1
0	62226	53.5	1
0	62323	53.6	1
0	62420	53.7	1
0	62517	53.8	1
0	62614	53.9	1
0	62711	54	1
0	62808	54.1	1
0	62901	54.2	1
0	62999	54.3	1
0	63106	54.4	1
0	63238	54.5	1
0	63372	54.6	1
0	63494	54.7	1
0	63616	54.8	1
0	63738	54.9	1
0	63860	55	1
0	63982	55.1	1
0	64104	55.2	1
0	64226	55.3	1
0	64348	55.4	1
0	64470	55.5	1
0	64592	55.6	1
0	64714	55.7	1
0	64836	55.8	1
0	64958	55.9	1
0	65080	56	1
0	65202	56.1	1
0	65324	56.2	1
0	65445	56.3	1
0	65552	56.4	1
0	65660	56.5	1
0	65772	56.6	1
0	65884	56.7	1
0	65996	56.8	1
0	66108	56.9	1
0	66220	57	1
0	66332	57.1	1
0	66440	57.2	1
0	66552	57.3	1
0	66664	57.4	1
0	66786	57.5	1
0	66911	57.6	1
0	67033	57.7	1
0	67143	57.8	1
0	67265	57.9	1
0	67387	58	1
0	67509	58.1	1
0	67631	58.2	1
0	67753	58.3	1
0	67875	58.4	1
0	67997	58.5	1
0	68119	58.6	1
0	68241	58.7	1
0	68363	58.8	1
0	68485	58.9	1
0	68607	59	1
0	68729	59.1	1
0	68851	59.2	1
0	68973	59.3	1
0	69095	59.4	1
0	69217	59.5	1
0	69339	59.6	1
0	69461	59.7	1
0	69583	59.8	1
0	69705	59.9	1
0	69827	60	1
0	69949	60.1	1
0	70071	60.2	1
0	70199	60.3	1
0	70321	60.4	1
0	70443	60.5	1
0	70568	60.6	1
0	70690	60.7	1
0	70792	60.8	1
0	70898	60.9	1
0	71009	61	1
0	71116	61.1	1
0	71223	61.2	1
0	71330	61.3	1
0	71437	61.4	1
0	71544	61.5	1
0	71651	61.6	1
0	71758	61.7	1
0	71868	61.8	1
0	71990	61.9	1
0	72112	62	1
0	72234	62.1	1
0	72356	62.2	1
0	72478	62.3	1
0	72600	62.4	1
0	72722	62.5	1
0	72844	62.6	1
0	72966	62.7	1
0	73088	62.8	1
0	73210	62.9	1
0	73332	63	1
0	73454	63.1	1
0	73576	63.2	1
0	73704	63.3	1
0	73826	63.4	1
0	73948	63.5	1
0	74073	63.6	1
0	74195	63.7	1
0	74309	63.8	1
0	74421	63.9	1
0	74518	64	1
0	74605	64.1	1
0	74697	64.2	1
0	74794	64.3	1
0	74891	64.4	1
0	74988	64.5	1
0	75085	64.6	1
0	75182	64.7	1
0	75276	64.8	1
0	75368	64.9	1
0	75470	65	1
0	75592	65.1	1
0	75724	65.2	1
0	75849	65.3	1
0	75971	65.4	1
0	76093	65.5	1
0	76215	65.6	1
0	76337	65.7	1
0	76459	65.8	1
0	76581	65.9	1
0	76703	66	1
0	76825	66.1	1
0	76947	66.2	1
0	77075	66.3	1
0	77197	66.4	1
0	77319	66.5	1
0	77444	66.6	1
0	77566	66.7	1
0	77688	66.8	1
0	77810	66.9	1
0	77922	67	1
0	78030	67.1	1
0	78140	67.2	1
0	78252	67.3	1
0	78364	67.4	1
0	78476	67.5	1
0	78588	67.6	1
0	78700	67.7	1
0	78810	67.8	1
0	78916	67.9	1
0	79026	68	1
0	79144	68.1	1
0	79266	68.2	1
0	79388	68.3	1
0	79501	68.4	1
0	79620	68.5	1
0	79742	68.6	1
0	79864	68.7	1
0	79986	68.8	1
0	80108	68.9	1
0	80230	69	1
0	80352	69.1	1
0	80474	69.2	1
0	80602	69.3	1
0	80724	69.4	1
0	80846	69.5	1
0	80971	69.6	1
0	81093	69.7	1
0	81215	69.8	1
0	81337	69.9	1
0	81459	70	1
0	81581	70.1	1
0	81703	70.2	1
0	81825	70.3	1
0	81947	70.4	1
0	82069	70.5	1
0	82191	70.6	1
0	82313	70.7	1
0	82435	70.8	1
0	82557	70.9	1
0	82679	71	1
0	82801	71.1	1
0	82923	71.2	1
0	83045	71.3	1
0	83155	71.4	1
0	83260	71.5	1
0	83366	71.6	1
0	83477	71.7	1
0	83584	71.8	1
0	83691	71.9	1
0	83798	72	1
0	83905	72.1	1
0	84012	72.2	1
0	84125	72.3	1
0	84232	72.4	1
0	84351	72.5	1
0	84476	72.6	1
0	84598	72.7	1
0	84720	72.8	1
0	84842	72.9	1
0	84964	73	1
0	85086	73.1	1
0	85208	73.2	1
0	85330	73.3	1
0	85452	73.4	1
0	85574	73.5	1
0	85696	73.6	1
0	85818	73.7	1
0	85940	73.8	1
0	86062	73.9	1
0	86184	74	1
0	86306	74.1	1
0	86428	74.2	1
0	86550	74.3	1
0	86668	74.4	1
0	86780	74.5	1
0	86886	74.6	1
0	86975	74.7	1
0	87062	74.8	1
0	87159	74.9	1
0	87256	75	1
0	87353	75.1	1
0	87450	75.2	1
0	87553	75.3	1
0	87650	75.4	1
0	87740	75.5	1
0	87840	75.6	1
0	87952	75.7	1
0	88084	75.8	1
0	88213	75.9	1
0	88335	76	1
0	88457	76.1	1
0	88579	76.2	1
0	88701	76.3	1
0	88823	76.4	1
0	88945	76.5	1
0	89067	76.6	1
0	89189	76.7	1
0	89311	76.8	1
0	89433	76.9	1
0	89555	77	1
0	89677	77.1	1
0	89799	77.2	1
0	89921	77.3	1
0	90043	77.4	1
0	90165	77.5	1
0	90283	77.6	1
0	90391	77.7	1
0	90499	77.8	1
0	90611	77.9	1
0	90723	78	1
0	90835	78.1	1
0	90947	78.2	1
0	91065	78.3	1
0	91177	78.4	1
0	91283	78.5	1
0	91394	78.6	1
0	91508	78.7	1
0	91630	78.8	1
0	91752	78.9	1
0	91871	79	1
0	91984	79.1	1
0	92106	79.2	1
0	92228	79.3	1
0	92350	79.4	1
0	92472	79.5	1
0	92594	79.6	1
0	92716	79.7	1
0	92838	79.8	1
0	92960	79.9	1
0	93082	80	1
0	93204	80.1	1
0	93326	80.2	1
0	93448	80.3	1
0	93570	80.4	1
0	93692	80.5	1
0	93814	80.6	1
0	93936	80.7	1
0	94058	80.8	1
0	94180	80.9	1
0	94302	81	1
0	94424	81.1	1
0	94546	81.2	1
0	94674	81.3	1
0	94796	81.4	1
0	94918	81.5	1
0	95043	81.6	1
0	95165	81.7	1
0	95287	81.8	1
0	95409	81.9	1
0	95529	82	1
0	95630	82.1	1
0	95736	82.2	1
0	95847	82.3	1
0	95954	82.4	1
0	96061	82.5	1
0	96168	82.6	1
0	96275	82.7	1
0	96382	82.8	1
0	96489	82.9	1
0	96596	83	1
0	96709	83.1	1
0	96831	83.2	1
0	96953	83.3	1
0	97075	83.4	1
0	97197	83.5	1
0	97319	83.6	1
0	97441	83.7	1
0	97563	83.8	1
0	97685	83.9	1
0	97807	84	1
0	97929	84.1	1
0	98051	84.2	1
0	98179	84.3	1
0	98301	84.4	1
0	98423	84.5	1
0	98548	84.6	1
0	98670	84.7	1
0	98792	84.8	1
0	98914	84.9	1
0	99036	85	1
0	99148	85.1	1
0	99259	85.2	1
0	99354	85.3	1
0	99441	85.4	1
0	99533	85.5	1
0	99630	85.6	1
0	99727	85.7	1
0	99824	85.8	1
0	99921	85.9	1
0	100018	86	1
0	100109	86.1	1
0	100206	86.2	1
0	100303	86.3	1
0	100435	86.4	1
0	100567	86.5	1
0	100690	86.6	1
0	100812	86.7	1
0	100934	86.8	1
0	101056	86.9	1
0	101178	87	1
0	101300	87.1	1
0	101422	87.2	1
0	101550	87.3	1
0	101672	87.4	1
0	101794	87.5	1
0	101919	87.6	1
0	102041	87.7	1
0	102163	87.8	1
0	102285	87.9	1
0	102407	88	1
0	102529	88.1	1
0	102650	88.2	1
0	102761	88.3	1
0	102869	88.4	1
0	102979	88.5	1
0	103091	88.6	1
0	103203	88.7	1
0	103315	88.8	1
0	103427	88.9	1
0	103539	89	1
0	103647	89.1	1
0	103755	89.2	1
0	103863	89.3	1
0	103985	89.4	1
0	104107	89.5	1
0	104229	89.6	1
0	104339	89.7	1
0	104461	89.8	1
0	104583	89.9	1
0	104705	90	1
0	104827	90.1	1
0	104949	90.2	1
0	105077	90.3	1
0	105199	90.4	1
0	105321	90.5	1
0	105446	90.6	1
0	105568	90.7	1
0	105690	90.8	1
0	105812	90.9	1
0	105934	91	1
0	106056	91.1	1
0	106178	91.2	1
0	106300	91.3	1
0	106422	91.4	1
0	106544	91.5	1
0	106666	91.6	1
0	106788	91.7	1
0	106910	91.8	1
0	107032	91.9	1
0	107154	92	1
0	107276	92.1	1
0	107398	92.2	1
0	107520	92.3	1
0	107642	92.4	1
0	107764	92.5	1
0	107886	92.6	1
0	107991	92.7	1
0	108098	92.8	1
0	108208	92.9	1
0	108315	93	1
0	108422	93.1	1
0	108529	93.2	1
0	108642	93.3	1
0	108749	93.4	1
0	108856	93.5	1
0	108966	93.6	1
0	109072	93.7	1
0	109195	93.8	1
0	109317	93.9	1
0	109439	94	1
0	109561	94.1	1
0	109683	94.2	1
0	109805	94.3	1
0	109927	94.4	1
0	110049	94.5	1
0	110171	94.6	1
0	110293	94.7	1
0	110415	94.8	1
0	110537	94.9	1
0	110659	95	1
0	110781	95.1	1
0	110903	95.2	1
0	111025	95.3	1
0	111147	95.4	1
0	111269	95.5	1
0	111391	95.6	1
0	111507	95.7	1
0	111619	95.8	1
0	111724	95.9	1
0	111811	96	1
0	111898	96.1	1
0	111995	96.2	1
0	112098	96.3	1
0	112195	96.4	1
0	112292	96.5	1
0	112392	96.6	1
0	112484	96.7	1
0	112581	96.8	1
0	112673	96.9	1
0	112795	97	1
0	112927	97.1	1
0	113054	97.2	1
0	113176	97.3	1
0	113298	97.4	1
0	113420	97.5	1
0	113542	97.6	1
0	113664	97.7	1
0	113786	97.8	1
0	113908	97.9	1
0	114030	98	1
0	114152	98.1	1
0	114274	98.2	1
0	114396	98.3	1
0	114518	98.4	1
0	114640	98.5	1
0	114762	98.6	1
0	114884	98.7	1
0	115006	98.8	1
0	115122	98.9	1
0	115230	99	1
0	115338	99.1	1
0	115450	99.2	1
0	115568	99.3	1
0	115680	99.4	1
0	115792	99.5	1
0	115907	99.6	1
0	116017	99.7	1
0	116125	99.8	1
0	116231	99.9	1
1	0	0	0
1	67	0.1	3
1	167	0.2	9
1	279	0.3	13
1	391	0.4	21
1	503	0.5	29
1	615	0.6	33
1	727	0.7	33
1	839	0.8	33
1	951	0.9	33
1	1063	1	33
1	1175	1.1	33
1	1287	1.2	33
1	1399	1.3	33
1	1510	1.4	33
1	1612	1.5	33
1	1714	1.6	33
1	1816	1.7	33
1	1918	1.8	33
1	2020	1.9	33
1	2122	2	33
1	2224	2.1	33
1	2326	2.2	33
1	2428	2.3	33
1	2530	2.4	33
1	2632	2.5	33
1	2734	2.6	33
1	2836	2.7	33
1	2938	2.8	33
1	3040	2.9	33
1	3146	3	33
1	3256	3.1	33
1	3378	3.2	33
1	3506	3.3	33
1	3634	3.4	36
1	3758	3.5	37
1	3882	3.6	38
1	4004	3.7	38
1	4126	3.8	38
1	4248	3.9	38
1	4370	4	38
1	4492	4.1	38
1	4614	4.2	38
1	4736	4.3	38
1	4858	4.4	38
1	4980	4.5	38
1	5090	4.6	38
1	5212	4.7	38
1	5334	4.8	38
1	5456	4.9	38
1	5578	5	38
1	5700	5.1	38
1	5822	5.2	38
1	5944	5.3	38
1	6066	5.4	38
1	6188	5.5	38
1	6310	5.6	38
1	6432	5.7	38
1	6554	5.8	38
1	6676	5.9	38
1	6798	6	38
1	6920	6.1	38
1	7044	6.2	38
1	7173	6.3	38
1	7298	6.4	38
1	7421	6.5	38
1	7546	6.6	39
1	7668	6.7	39
1	7790	6.8	39
1	7912	6.9	39
1	8034	7	39
1	8156	7.1	39
1	8278	7.2	39
1	8400	7.3	39
1	8522	7.4	39
1	8644	7.5	39
1	8746	7.6	39
1	8852	7.7	39
1	8963	7.8	39
1	9070	7.9	39
1	9177	8	39
1	9284	8.1	39
1	9391	8.2	39
1	9498	8.3	39
1	9605	8.4	39
1	9712	8.5	39
1	9822	8.6	39
1	9944	8.7	39
1	10066	8.8	39
1	10188	8.9	39
1	10310	9	39
1	10432	9.1	39
1	10554	9.2	39
1	10682	9.3	39
1	10804	9.4	39
1	10926	9.5	39
1	11051	9.6	40
1	11173	9.7	40
1	11295	9.8	40
1	11417	9.9	40
1	11539	10	40
1	11661	10.1	40
1	11783	10.2	40
1	11905	10.3	40
1	12027	10.4	40
1	12149	10.5	40
1	12263	10.6	40
1	12375	10.7	40
1	12472	10.8	40
1	12559	10.9	40
1	12651	11	40
1	12748	11.1	40
1	12845	11.2	40
1	12942	11.3	40
1	13039	11.4	40
1	13136	11.5	40
1	13230	11.6	40
1	13322	11.7	40
1	13424	11.8	40
1	13546	11.9	40
1	13678	12	40
1	13803	12.1	40
1	13925	12.2	40
1	14053	12.3	40
1	14175	12.4	40
1	14297	12.5	40
1	14422	12.6	41
1	14544	12.7	41
1	14666	12.8	41
1	14788	12.9	41
1	14910	13	41
1	15032	13.1	41
1	15154	13.2	41
1	15276	13.3	41
1	15398	13.4	41
1	15520	13.5	41
1	15642	13.6	41
1	15764	13.7	41
1	15876	13.8	41
1	15984	13.9	41
1	16094	14	41
1	16206	14.1	41
1	16318	14.2	41
1	16430	14.3	41
1	16542	14.4	41
1	16654	14.5	41
1	16764	14.6	41
1	16870	14.7	41
1	16980	14.8	41
1	17098	14.9	41
1	17220	15	41
1	17342	15.1	41
1	17455	15.2	41
1	17580	15.3	41
1	17702	15.4	41
1	17824	15.5	41
1	17949	15.6	42
1	18071	15.7	42
1	18193	15.8	42
1	18315	15.9	42
1	18437	16	42
1	18559	16.1	42
1	18681	16.2	42
1	18803	16.3	42
1	18925	16.4	42
1	19047	16.5	42
1	19169	16.6	42
1	19291	16.7	42
1	19413	16.8	42
1	19535	16.9	42
1	19657	17	42
1	19779	17.1	42
1	19901	17.2	42
1	20023	17.3	42
1	20145	17.4	42
1	20267	17.5	42
1	20389	17.6	42
1	20511	17.7	42
1	20633	17.8	42
1	20755	17.9	42
1	20877	18	42
1	20999	18.1	42
1	21109	18.2	42
1	21220	18.3	42
1	21326	18.4	42
1	21437	18.5	42
1	21547	18.6	43
1	21654	18.7	43
1	21761	18.8	43
1	21868	18.9	43
1	21975	19	43
1	22082	19.1	43
1	22189	19.2	43
1	22308	19.3	43
1	22430	19.4	43
1	22552	19.5	43
1	22674	19.6	43
1	22796	19.7	43
1	22918	19.8	43
1	23040	19.9	43
1	23162	20	43
1	23284	20.1	43
1	23406	20.2	43
1	23528	20.3	43
1	23650	20.4	43
1	23772	20.5	43
1	23894	20.6	43
1	24016	20.7	43
1	24138	20.8	43
1	24260	20.9	43
1	24382	21	43
1	24504	21.1	43
1	24622	21.2	43
1	24740	21.3	43
1	24846	21.4	43
1	24935	21.5	43
1	25025	21.6	44
1	25122	21.7	44
1	25219	21.8	44
1	25316	21.9	44
1	25413	22	44
1	25510	22.1	44
1	25607	22.2	44
1	25697	22.3	44
1	25794	22.4	44
1	25906	22.5	44
1	26038	22.6	44
1	26167	22.7	44
1	26289	22.8	44
1	26411	22.9	44
1	26533	23	44
1	26655	23.1	44
1	26777	23.2	44
1	26899	23.3	44
1	27021	23.4	44
1	27143	23.5	44
1	27265	23.6	44
1	27387	23.7	44
1	27509	23.8	44
1	27631	23.9	44
1	27753	24	44
1	27875	24.1	44
1	27997	24.2	44
1	28125	24.3	44
1	28243	24.4	44
1	28351	24.5	44
1	28462	24.6	45
1	28574	24.7	45
1	28686	24.8	45
1	28798	24.9	45
1	28910	25	45
1	29022	25.1	45
1	29134	25.2	45
1	29240	25.3	45
1	29348	25.4	45
1	29462	25.5	45
1	29584	25.6	45
1	29706	25.7	45
1	29825	25.8	45
1	29938	25.9	45
1	30060	26	45
1	30182	26.1	45
1	30304	26.2	45
1	30426	26.3	45
1	30548	26.4	45
1	30670	26.5	45
1	30792	26.6	45
1	30914	26.7	45
1	31036	26.8	45
1	31158	26.9	45
1	31280	27	45
1	31402	27.1	45
1	31524	27.2	45
1	31652	27.3	45
1	31774	27.4	45
1	31896	27.5	45
1	32021	27.6	46
1	32143	27.7	46
1	32265	27.8	46
1	32387	27.9	46
1	32509	28	46
1	32631	28.1	46
1	32753	28.2	46
1	32875	28.3	46
1	32997	28.4	46
1	33119	28.5	46
1	33241	28.6	46
1	33363	28.7	46
1	33483	28.8	46
1	33584	28.9	46
1	33690	29	46
1	33801	29.1	46
1	33908	29.2	46
1	34015	29.3	46
1	34122	29.4	46
1	34229	29.5	46
1	34336	29.6	46
1	34443	29.7	46
1	34550	29.8	46
1	34663	29.9	46
1	34785	30	46
1	34907	30.1	46
1	35029	30.2	46
1	35157	30.3	46
1	35279	30.4	46
1	35401	30.5	46
1	35526	30.6	47
1	35648	30.7	47
1	35770	30.8	47
1	35892	30.9	47
1	36014	31	47
1	36136	31.1	47
1	36258	31.2	47
1	36380	31.3	47
1	36502	31.4	47
1	36624	31.5	47
1	36746	31.6	47
1	36868	31.7	47
1	36990	31.8	47
1	37102	31.9	47
1	37213	32	47
1	37308	32.1	47
1	37395	32.2	47
1	37487	32.3	47
1	37584	32.4	47
1	37681	32.5	47
1	37778	32.6	47
1	37875	32.7	47
1	37972	32.8	47
1	38063	32.9	47
1	38160	33	47
1	38257	33.1	47
1	38389	33.2	47
1	38527	33.3	47
1	38650	33.4	47
1	38772	33.5	47
1	38897	33.6	48
1	39019	33.7	48
1	39141	33.8	48
1	39263	33.9	48
1	39385	34	48
1	39507	34.1	48
1	39629	34.2	48
1	39751	34.3	48
1	39873	34.4	48
1	39995	34.5	48
1	40117	34.6	48
1	40239	34.7	48
1	40361	34.8	48
1	40483	34.9	48
1	40604	35	48
1	40715	35.1	48
1	40823	35.2	48
1	40933	35.3	48
1	41045	35.4	48
1	41157	35.5	48
1	41269	35.6	48
1	41381	35.7	48
1	41493	35.8	48
1	41601	35.9	48
1	41709	36	48
1	41817	36.1	48
1	41939	36.2	48
1	42067	36.3	48
1	42189	36.4	48
1	42299	36.5	48
1	42424	36.6	49
1	42546	36.7	49
1	42668	36.8	49
1	42790	36.9	49
1	42912	37	49
1	43034	37.1	49
1	43156	37.2	49
1	43278	37.3	49
1	43400	37.4	49
1	43522	37.5	49
1	43644	37.6	49
1	43766	37.7	49
1	43888	37.8	49
1	44010	37.9	49
1	44132	38	49
1	44254	38.1	49
1	44376	38.2	49
1	44498	38.3	49
1	44620	38.4	49
1	44742	38.5	49
1	44864	38.6	49
1	44986	38.7	49
1	45108	38.8	49
1	45230	38.9	49
1	45352	39	49
1	45474	39.1	49
1	45596	39.2	49
1	45724	39.3	49
1	45846	39.4	49
1	45951	39.5	49
1	46061	39.6	50
1	46171	39.7	50
1	46278	39.8	50
1	46385	39.9	50
1	46492	40	50
1	46599	40.1	50
1	46706	40.2	50
1	46813	40.3	50
1	46920	40.4	50
1	47026	40.5	50
1	47149	40.6	50
1	47271	40.7	50
1	47393	40.8	50
1	47515	40.9	50
1	47637	41	50
1	47759	41.1	50
1	47881	41.2	50
1	48003	41.3	50
1	48125	41.4	50
1	48247	41.5	50
1	48369	41.6	50
1	48491	41.7	50
1	48613	41.8	50
1	48735	41.9	50
1	48857	42	50
1	48979	42.1	50
1	49101	42.2	50
1	49229	42.3	50
1	49351	42.4	50
1	49467	42.5	50
1	49582	42.6	51
1	49687	42.7	51
1	49774	42.8	51
1	49861	42.9	51
1	49958	43	51
1	50055	43.1	51
1	50152	43.2	51
1	50249	43.3	51
1	50346	43.4	51
1	50438	43.5	51
1	50535	43.6	51
1	50627	43.7	51
1	50749	43.8	51
1	50881	43.9	51
1	51008	44	51
1	51130	44.1	51
1	51252	44.2	51
1	51374	44.3	51
1	51496	44.4	51
1	51618	44.5	51
1	51740	44.6	51
1	51862	44.7	51
1	51984	44.8	51
1	52106	44.9	51
1	52228	45	51
1	52350	45.1	51
1	52472	45.2	51
1	52600	45.3	51
1	52722	45.4	51
1	52844	45.5	51
1	52969	45.6	52
1	53085	45.7	52
1	53193	45.8	52
1	53301	45.9	52
1	53413	46	52
1	53525	46.1	52
1	53637	46.2	52
1	53749	46.3	52
1	53861	46.4	52
1	53971	46.5	52
1	54079	46.6	52
1	54185	46.7	52
1	54303	46.8	52
1	54425	46.9	52
1	54547	47	52
1	54663	47.1	52
1	54779	47.2	52
1	54901	47.3	52
1	55023	47.4	52
1	55145	47.5	52
1	55267	47.6	52
1	55389	47.7	52
1	55511	47.8	52
1	55633	47.9	52
1	55755	48	52
1	55877	48.1	52
1	55999	48.2	52
1	56127	48.3	52
1	56249	48.4	52
1	56371	48.5	52
1	56496	48.6	53
1	56618	48.7	53
1	56740	48.8	53
1	56862	48.9	53
1	56984	49	53
1	57106	49.1	53
1	57228	49.2	53
1	57350	49.3	53
1	57472	49.4	53
1	57594	49.5	53
1	57716	49.6	53
1	57838	49.7	53
1	57960	49.8	53
1	58082	49.9	53
1	58204	50	53
1	58319	50.1	53
1	58422	50.2	53
1	58528	50.3	53
1	58639	50.4	53
1	58746	50.5	53
1	58853	50.6	53
1	58960	50.7	53
1	59067	50.8	53
1	59174	50.9	53
1	59281	51	53
1	59388	51.1	53
1	59504	51.2	53
1	59632	51.3	53
1	59754	51.4	53
1	59876	51.5	53
1	60001	51.6	54
1	60123	51.7	54
1	60245	51.8	54
1	60367	51.9	54
1	60489	52	54
1	60611	52.1	54
1	60733	52.2	54
1	60855	52.3	54
1	60977	52.4	54
1	61099	52.5	54
1	61221	52.6	54
1	61343	52.7	54
1	61465	52.8	54
1	61587	52.9	54
1	61709	53	54
1	61829	53.1	54
1	61941	53.2	54
1	62052	53.3	54
1	62139	53.4	54
1	62226	53.5	54
1	62323	53.6	54
1	62420	53.7	54
1	62517	53.8	54
1	62614	53.9	54
1	62711	54	54
1	62808	54.1	54
1	62901	54.2	54
1	62999	54.3	54
1	63106	54.4	54
1	63238	54.5	54
1	63372	54.6	55
1	63494	54.7	55
1	63616	54.8	55
1	63738	54.9	55
1	63860	55	55
1	63982	55.1	55
1	64104	55.2	55
1	64226	55.3	55
1	64348	55.4	55
1	64470	55.5	55
1	64592	55.6	55
1	64714	55.7	55
1	64836	55.8	55
1	64958	55.9	55
1	65080	56	55
1	65202	56.1	55
1	65324	56.2	55
1	65445	56.3	55
1	65552	56.4	55
1	65660	56.5	55
1	65772	56.6	55
1	65884	56.7	55
1	65996	56.8	55
1	66108	56.9	55
1	66220	57	55
1	66332	57.1	55
1	66440	57.2	55
1	66552	57.3	55
1	66664	57.4	55
1	66786	57.5	55
1	66911	57.6	56
1	67033	57.7	56
1	67143	57.8	56
1	67265	57.9	56
1	67387	58	56
1	67509	58.1	56
1	67631	58.2	56
1	67753	58.3	56
1	67875	58.4	56
1	67997	58.5	56
1	68119	58.6	56
1	68241	58.7	56
1	68363	58.8	56
1	68485	58.9	56
1	68607	59	56
1	68729	59.1	56
1	68851	59.2	56
1	68973	59.3	56
1	69095	59.4	56
1	69217	59.5	56
1	69339	59.6	56
1	69461	59.7	56
1	69583	59.8	56
1	69705	59.9	56
1	69827	60	56
1	69949	60.1	56
1	70071	60.2	56
1	70199	60.3	56
1	70321	60.4	56
1	70443	60.5	56
1	70568	60.6	57
1	70690	60.7	57
1	70792	60.8	57
1	70898	60.9	57
1	71009	61	57
1	71116	61.1	57
1	71223	61.2	57
1	71330	61.3	57
1	71437	61.4	57
1	71544	61.5	57
1	71651	61.6	57
1	71758	61.7	57
1	71868	61.8	57
1	71990	61.9	57
1	72112	62	57
1	72234	62.1	57
1	72356	62.2	57
1	72478	62.3	57
1	72600	62.4	57
1	72722	62.5	57
1	72844	62.6	57
1	72966	62.7	57
1	73088	62.8	57
1	73210	62.9	57
1	73332	63	57
1	73454	63.1	57
1	73576	63.2	57
1	73704	63.3	57
1	73826	63.4	57
1	73948	63.5	57
1	74073	63.6	58
1	74195	63.7	58
1	74309	63.8	58
1	74421	63.9	58
1	74518	64	58
1	74605	64.1	58
1	74697	64.2	58
1	74794	64.3	58
1	74891	64.4	58
1	74988	64.5	58
1	75085	64.6	58
1	75182	64.7	58
1	75276	64.8	58
1	75368	64.9	58
1	75470	65	58
1	75592	65.1	58
1	75724	65.2	58
1	75849	65.3	58
1	75971	65.4	58
1	76093	65.5	58
1	76215	65.6	58
1	76337	65.7	58
1	76459	65.8	58
1	76581	65.9	58
1	76703	66	58
1	76825	66.1	58
1	76947	66.2	58
1	77075	66.3	58
1	77197	66.4	58
1	77319	66.5	58
1	77444	66.6	59
1	77566	66.7	59
1	77688	66.8	59
1	77810	66.9	59
1	77922	67	59
1	78030	67.1	59
1	78140	67.2	59
1	78252	67.3	59
1	78364	67.4	59
1	78476	67.5	59
1	78588	67.6	59
1	78700	67.7	59
1	78810	67.8	59
1	78916	67.9	59
1	79026	68	59
1	79144	68.1	59
1	79266	68.2	59
1	79388	68.3	59
1	79501	68.4	59
1	79620	68.5	59
1	79742	68.6	59
1	79864	68.7	59
1	79986	68.8	59
1	80108	68.9	59
1	80230	69	59
1	80352	69.1	59
1	80474	69.2	59
1	80602	69.3	59
1	80724	69.4	59
1	80846	69.5	59
1	80971	69.6	60
1	81093	69.7	60
1	81215	69.8	60
1	81337	69.9	60
1	81459	70	60
1	81581	70.1	60
1	81703	70.2	60
1	81825	70.3	60
1	81947	70.4	60
1	82069	70.5	60
1	82191	70.6	60
1	82313	70.7	60
1	82435	70.8	60
1	82557	70.9	60
1	82679	71	60
1	82801	71.1	60
1	82923	71.2	60
1	83045	71.3	60
1	83155	71.4	60
1	83260	71.5	60
1	83366	71.6	60
1	83477	71.7	60
1	83584	71.8	60
1	83691	71.9	60
1	83798	72	60
1	83905	72.1	60
1	84012	72.2	60
1	84125	72.3	60
1	84232	72.4	60
1	84351	72.5	60
1	84476	72.6	61
1	84598	72.7	61
1	84720	72.8	61
1	84842	72.9	61
1	84964	73	61
1	85086	73.1	61
1	85208	73.2	61
1	85330	73.3	61
1	85452	73.4	61
1	85574	73.5	61
1	85696	73.6	61
1	85818	73.7	61
1	85940	73.8	61
1	86062	73.9	61
1	86184	74	61
1	86306	74.1	61
1	86428	74.2	61
1	86550	74.3	61
1	86668	74.4	61
1	86780	74.5	61
1	86886	74.6	61
1	86975	74.7	61
1	87062	74.8	61
1	87159	74.9	61
1	87256	75	61
1	87353	75.1	61
1	87450	75.2	61
1	87553	75.3	61
1	87650	75.4	61
1	87740	75.5	61
1	87840	75.6	62
1	87952	75.7	62
1	88084	75.8	62
1	88213	75.9	62
1	88335	76	62
1	88457	76.1	62
1	88579	76.2	62
1	88701	76.3	62
1	88823	76.4	62
1	88945	76.5	62
1	89067	76.6	62
1	89189	76.7	62
1	89311	76.8	62
1	89433	76.9	62
1	89555	77	62
1	89677	77.1	62
1	89799	77.2	62
1	89921	77.3	62
1	90043	77.4	62
1	90165	77.5	62
1	90283	77.6	62
1	90391	77.7	62